# vtk DataFile Version 3.0
vtk output
ASCII
DATASET UNSTRUCTURED_GRID
POINTS 345 float
0 0 0 0 1 0 1 1 0 
1 0 0 0 0 4 0 1 4 
1 1 4 1 0 4 0 0.25 0 
0 0.5 0 0 0.75 0 0.25 1 0 
0.5 1 0 0.75 1 0 1 0.75 0 
1 0.5 0 1 0.25 0 0.75 0 0 
0.5 0 0 0.25 0 0 0 0.25 4 
0 0.5 4 0 0.75 4 0.25 1 4 
0.5 1 4 0.75 1 4 1 0.75 4 
1 0.5 4 1 0.25 4 0.75 0 4 
0.5 0 4 0.25 0 4 0 0 0.28571 
0 0 0.57143 0 0 0.85714 0 0 1.1429 
0 0 1.4286 0 0 1.7143 0 0 2 
0 0 2.2857 0 0 2.5714 0 0 2.8571 
0 0 3.1429 0 0 3.4286 0 0 3.7143 
0 1 0.28571 0 1 0.57143 0 1 0.85714 
0 1 1.1429 0 1 1.4286 0 1 1.7143 
0 1 2 0 1 2.2857 0 1 2.5714 
0 1 2.8571 0 1 3.1429 0 1 3.4286 
0 1 3.7143 1 1 0.28571 1 1 0.57143 
1 1 0.85714 1 1 1.1429 1 1 1.4286 
1 1 1.7143 1 1 2 1 1 2.2857 
1 1 2.5714 1 1 2.8571 1 1 3.1429 
1 1 3.4286 1 1 3.7143 1 0 0.28571 
1 0 0.57143 1 0 0.85714 1 0 1.1429 
1 0 1.4286 1 0 1.7143 1 0 2 
1 0 2.2857 1 0 2.5714 1 0 2.8571 
1 0 3.1429 1 0 3.4286 1 0 3.7143 
0 0.49858 0.48574 0 0.5 3.5727 0 0.46773 1.3787 
0 0.5 1.8571 0 0.5 2.4238 0 0.5 3.0853 
0 0.40489 0.90411 0 0.25764 1.5669 0 0.75143 1.5527 
0 0.2432 2.1763 0 0.7568 2.1763 0 0.75602 2.6733 
0 0.24398 2.6733 0 0.70445 0.95448 0 0.26322 3.2353 
0 0.73678 3.2353 0 0.2952 0.29178 0 0.73656 0.27057 
0 0.26906 3.733 0 0.73094 3.733 0 0.72829 0.70004 
0 0.25609 0.70542 0 0.27252 1.1355 0 0.73914 1.2554 
0 0.71546 1.8592 0 0.28583 1.8613 0 0.80256 2.4261 
0 0.19744 2.4261 0 0.2512 2.9617 0 0.7488 2.9617 
0 0.24753 3.4842 0 0.75247 3.4842 0 0.5 0.21777 
0 0.5 3.7822 0 0.21995 1.3598 0 0.7958 0.49135 
0 0.51634 0.71642 0 0.2009 0.46685 0 0.19057 0.94418 
0 0.51775 1.1256 0 0.12976 3.8618 0 0.125 0.14286 
0 0.87024 3.8618 0 0.87164 0.13907 0 0.5 1.6519 
0 0.5 2.0624 0 0.5 2.7907 0 0.5 3.3226 
1 0.49858 0.48574 1 0.5 3.5727 1 0.46773 1.3787 
1 0.5 1.8571 1 0.5 2.4238 1 0.5 3.0853 
1 0.40489 0.90411 1 0.75143 1.5527 1 0.25764 1.5669 
1 0.7568 2.1763 1 0.2432 2.1763 1 0.75602 2.6733 
1 0.24398 2.6733 1 0.70445 0.95448 1 0.73678 3.2353 
1 0.26322 3.2353 1 0.73656 0.27057 1 0.73094 3.733 
1 0.2952 0.29178 1 0.26906 3.733 1 0.72829 0.70004 
1 0.25609 0.70542 1 0.27252 1.1355 1 0.73914 1.2554 
1 0.71546 1.8592 1 0.28583 1.8613 1 0.80256 2.4261 
1 0.19744 2.4261 1 0.2512 2.9617 1 0.7488 2.9617 
1 0.75247 3.4842 1 0.24753 3.4842 1 0.5 0.21777 
1 0.5 3.7822 1 0.21995 1.3598 1 0.7958 0.49135 
1 0.51634 0.71642 1 0.2009 0.46685 1 0.19057 0.94418 
1 0.51775 1.1256 1 0.87024 3.8618 1 0.87164 0.13907 
1 0.12976 3.8618 1 0.125 0.14286 1 0.5 1.6519 
1 0.5 2.0624 1 0.5 2.7835 1 0.5 3.3226 
0.49858 1 0.48574 0.5 1 3.5727 0.46773 1 1.3787 
0.5 1 1.8571 0.5 1 2.4238 0.5 1 3.0853 
0.40489 1 0.90411 0.25764 1 1.5669 0.75143 1 1.5527 
0.2432 1 2.1763 0.7568 1 2.1763 0.75602 1 2.6733 
0.24398 1 2.6733 0.70445 1 0.95448 0.26322 1 3.2353 
0.73678 1 3.2353 0.2952 1 0.29178 0.73656 1 0.27057 
0.26906 1 3.733 0.73094 1 3.733 0.72829 1 0.70004 
0.25609 1 0.70542 0.27252 1 1.1355 0.73914 1 1.2554 
0.71546 1 1.8592 0.28583 1 1.8613 0.80256 1 2.4261 
0.19744 1 2.4261 0.2512 1 2.9617 0.7488 1 2.9617 
0.24753 1 3.4842 0.75247 1 3.4842 0.5 1 0.21777 
0.5 1 3.7822 0.21995 1 1.3598 0.7958 1 0.49135 
0.51634 1 0.71642 0.2009 1 0.46685 0.19057 1 0.94418 
0.51775 1 1.1256 0.12976 1 3.8618 0.125 1 0.14286 
0.87024 1 3.8618 0.87164 1 0.13907 0.5 1 1.6519 
0.5 1 2.0624 0.5 1 2.7907 0.5 1 3.3226 
0.49858 0 0.48574 0.5 0 3.5727 0.46773 0 1.3787 
0.5 0 1.8571 0.5 0 2.4238 0.5 0 3.0853 
0.40489 0 0.90411 0.25764 0 1.5669 0.75143 0 1.5527 
0.2432 0 2.1763 0.7568 0 2.1763 0.75602 0 2.6733 
0.24398 0 2.6733 0.70445 0 0.95448 0.26322 0 3.2353 
0.73678 0 3.2353 0.73656 0 0.27057 0.73094 0 3.733 
0.2952 0 0.29178 0.26906 0 3.733 0.72829 0 0.70004 
0.25609 0 0.70542 0.27252 0 1.1355 0.73914 0 1.2554 
0.71546 0 1.8592 0.28583 0 1.8613 0.80256 0 2.4261 
0.19744 0 2.4261 0.2512 0 2.9617 0.7488 0 2.9617 
0.75247 0 3.4842 0.24753 0 3.4842 0.5 0 0.21777 
0.5 0 3.7822 0.21995 0 1.3598 0.7958 0 0.49135 
0.51634 0 0.71642 0.2009 0 0.46685 0.19057 0 0.94418 
0.51775 0 1.1256 0.87024 0 3.8618 0.87164 0 0.13907 
0.12976 0 3.8618 0.125 0 0.14286 0.5 0 1.6519 
0.5 0 2.0624 0.5 0 2.7835 0.5 0 3.3226 
0.5 0.5 0 0.70833 0.70833 0 0.70833 0.29167 0 
0.29167 0.70833 0 0.29167 0.29167 0 0.77976 0.5 0 
0.5 0.22024 0 0.5 0.77976 0 0.22024 0.5 0 
0.83854 0.83854 0 0.83854 0.16146 0 0.16146 0.83854 0 
0.16146 0.16146 0 0.5 0.5 4 0.70833 0.70833 4 
0.70833 0.29167 4 0.29167 0.70833 4 0.29167 0.29167 4 
0.77976 0.5 4 0.5 0.22024 4 0.5 0.77976 4 
0.22024 0.5 4 0.83854 0.83854 4 0.83854 0.16146 4 
0.16146 0.83854 4 0.16146 0.16146 4 0.5 0.5 3.8692 
0.5 0.5 1.7545 0.5 0.095082 3.204 0.5 0.5 1.2411 
0.5 0.5 0.74024 0.84409 0.84409 3.682 0.47988 0.47988 3.3789 
0.49566 0.50434 2.8152 0.5 0.5 2.2759 0.38007 0.38007 0.37899 
0.65073 0.65073 0.41972 0.33323 0.33323 1.4978 0.67684 0.35401 1.4978 
0.35401 0.67684 1.4978 0.32875 0.32875 0.99065 0.67434 0.32566 3.6233 
0.32566 0.67434 3.6233 0.68663 0.68663 1.4494 0.67666 0.67666 2.0152 
0.32154 0.67726 2.0054 0.67726 0.32154 2.0054 0.32295 0.32295 3.6378 
0.32235 0.32235 2.0052 0.70551 0.50885 0.99065 0.46714 0.7119 1.0119 
0.68546 0.32108 0.51763 0.32108 0.68546 0.51763 0.65084 0.66426 3.1091 
0.67914 0.67914 2.5308 0.67943 0.32057 2.5293 0.32065 0.32065 2.5297 
0.32057 0.67943 2.5293 0.31339 0.3534 3.0682 0.30748 0.69252 3.0963 
0.65302 0.26314 1.1486 0.67835 0.32165 3.0307 0.76053 0.40975 1.7545 
0.40975 0.76053 1.7545 0.63043 0.63043 3.6227 0.23947 0.55564 1.7545 
0.55564 0.23947 1.7545 0.25428 0.63238 1.1838 0.67833 0.27195 0.81164 

CELLS 1074 5370
4 200 306 325 326 
4 313 316 305 336 
4 319 320 303 338 
4 303 320 319 339 
4 305 325 171 336 
4 200 306 152 325 
4 104 326 306 328 
4 305 319 171 325 
4 203 325 319 326 
4 276 311 278 312 
4 276 279 311 312 
4 278 312 311 327 
4 311 312 279 328 
4 105 306 249 311 
4 243 308 304 317 
4 319 325 305 326 
4 305 316 313 343 
4 156 320 319 338 
4 319 320 204 339 
4 152 306 200 312 
4 125 271 288 100 
4 97 316 306 326 
4 268 245 299 174 
4 220 198 300 126 
4 102 124 270 301 
4 249 306 105 316 
4 203 155 319 325 
4 308 317 243 337 
4 249 306 264 311 
4 105 120 306 311 
4 147 243 317 337 
4 147 317 308 337 
4 106 313 316 343 
4 230 316 313 336 
4 104 201 326 328 
4 134 305 171 336 
4 267 316 250 336 
4 304 308 243 337 
4 97 306 104 326 
4 200 325 193 326 
4 147 179 308 317 
4 216 306 200 326 
4 120 306 97 316 
4 264 311 306 327 
4 306 311 120 328 
4 171 305 134 319 
4 313 303 341 342 
4 120 104 306 328 
4 276 278 281 312 
4 276 283 279 312 
4 250 106 313 316 
4 156 204 319 320 
4 281 312 278 327 
4 279 312 283 328 
4 242 308 98 323 
4 152 306 168 325 
4 161 329 209 330 
4 97 120 104 306 
4 230 250 313 316 
4 316 326 97 343 
4 242 98 308 334 
4 200 152 145 325 
4 147 308 179 337 
4 203 193 325 326 
4 230 267 250 336 
4 212 196 279 328 
4 118 262 106 313 
4 200 306 216 312 
4 152 168 306 312 
4 278 311 282 327 
4 284 311 279 328 
4 201 218 97 326 
4 264 306 249 316 
4 105 306 120 316 
4 109 324 313 341 
4 253 313 324 342 
4 262 250 106 313 
4 182 305 315 343 
4 235 91 253 313 
4 134 314 305 336 
4 281 278 150 327 
4 285 173 223 148 
4 182 326 305 343 
4 313 341 324 342 
4 308 318 227 335 
4 230 250 316 336 
4 203 193 155 325 
4 155 171 319 325 
4 121 105 265 311 
4 90 120 97 316 
4 259 242 98 323 
4 131 318 308 335 
4 182 319 305 326 
4 106 86 313 343 
4 203 319 219 326 
4 143 161 209 330 
4 131 99 318 335 
4 194 227 318 335 
4 259 304 308 323 
4 208 113 192 335 
4 306 316 264 344 
4 259 98 114 323 
4 306 326 216 328 
4 182 219 319 326 
4 179 329 308 340 
4 253 91 109 313 
4 264 228 311 327 
4 84 120 311 328 
4 162 329 179 340 
4 101 116 279 328 
4 260 244 278 327 
4 182 315 305 319 
4 305 314 134 319 
4 242 308 304 334 
4 288 271 246 100 
4 308 317 179 340 
4 227 318 308 340 
4 200 145 193 325 
4 260 278 282 327 
4 116 284 279 328 
4 156 204 139 319 
4 133 179 317 340 
4 181 318 227 340 
4 97 104 201 326 
4 253 313 109 324 
4 249 264 228 311 
4 105 84 120 311 
4 260 282 311 327 
4 116 311 284 328 
4 324 341 303 342 
4 308 329 227 340 
4 211 227 329 340 
4 259 308 242 323 
4 98 308 114 323 
4 306 312 168 327 
4 216 312 306 328 
4 279 283 212 328 
4 309 329 161 330 
4 204 188 319 339 
4 156 319 139 338 
4 281 150 164 327 
4 265 105 249 311 
4 201 216 326 328 
4 281 164 312 327 
4 283 312 212 328 
4 114 308 131 323 
4 209 329 309 330 
4 288 246 280 100 
4 264 327 306 344 
4 259 304 242 308 
4 204 188 139 319 
4 305 314 313 336 
4 287 101 221 127 
4 244 269 286 175 
4 155 193 145 325 
4 101 279 196 328 
4 150 278 244 327 
4 201 216 186 326 
4 104 97 201 218 
4 147 243 163 317 
4 162 211 329 340 
4 96 112 256 334 
4 147 163 179 317 
4 115 131 99 318 
4 210 194 227 318 
4 201 186 218 326 
4 109 313 91 341 
4 235 313 253 342 
4 229 308 275 323 
4 85 131 308 323 
4 114 98 131 308 
4 229 275 308 317 
4 131 85 308 318 
4 243 304 258 317 
4 245 299 174 151 
4 270 102 301 247 
4 198 300 126 103 
4 243 258 163 317 
4 131 308 98 334 
4 139 319 176 338 
4 224 319 188 339 
4 161 309 178 329 
4 143 209 191 330 
4 178 309 161 330 
4 229 317 308 323 
4 308 318 85 323 
4 308 329 179 337 
4 162 146 179 329 
4 210 318 115 335 
4 226 309 209 329 
4 113 95 192 335 
4 156 139 176 338 
4 204 224 188 339 
4 209 309 226 330 
4 113 130 95 335 
4 208 192 226 335 
4 115 318 99 335 
4 210 194 318 335 
4 275 308 304 323 
4 143 178 161 330 
4 95 333 192 335 
4 259 275 304 323 
4 195 211 227 329 
4 182 219 326 343 
4 191 209 226 330 
4 168 325 306 344 
4 192 333 226 335 
4 130 333 95 335 
4 303 314 313 315 
4 313 314 305 315 
4 226 333 309 335 
4 309 333 130 335 
4 184 321 310 333 
4 230 313 314 336 
4 146 211 195 329 
4 88 310 321 333 
4 304 308 275 317 
4 115 99 194 335 
4 240 256 274 334 
4 96 256 240 334 
4 136 310 322 331 
4 262 230 250 313 
4 118 106 86 313 
4 287 101 279 196 
4 278 150 244 286 
4 232 310 324 332 
4 150 244 286 175 
4 287 101 196 221 
4 106 316 123 343 
4 234 264 249 316 
4 90 105 120 316 
4 232 322 310 331 
4 284 276 279 311 
4 282 278 276 311 
4 90 316 97 343 
4 246 280 100 311 
4 168 306 327 344 
[...]
POINT_DATA 345
SCALARS pressure float
LOOKUP_TABLE default
0 0 0 0 0 0 0 0 0 
0 0 0 0 0 0 0 0 0 
0 0 0 0 0 0 0 0 0 
0 0 0 0 0 -3.1508 -5.8414 -8.0533 -9.7721 
-10.977 -11.71 -11.949 -11.704 -10.976 -9.7329 -8.0305 -5.8048 -3.1582 
-3.1579 -5.8591 -8.0538 -9.7869 -11.002 -11.696 -11.952 -11.704 -10.975 
-9.7316 -8.018 -5.8395 -3.1736 -3.1643 -5.8529 -8.0493 -9.756 -10.979 
-11.716 -11.954 -11.7 -10.945 -9.7165 -8.0201 -5.858 -3.1746 -3.1534 
-5.8561 -8.0556 -9.7659 -11.001 -11.697 -11.952 -11.704 -10.981 -9.7473 
-8.0202 -5.8192 -3.1716 -5.0737 -4.5427 -10.813 -11.858 -11.464 -8.4057 
-8.4038 -11.418 -11.379 -11.875 -11.871 -10.613 -10.621 -8.6942 -7.3952 
-7.3964 -3.2086 -3.003 -2.9762 -2.9703 -6.9162 -6.9686 -9.7377 -10.325 
-11.931 -11.915 -11.378 -11.377 -9.1684 -9.1744 -5.2988 -5.3656 -2.4199 
-2.4295 -10.703 -5.1481 -7.0681 -4.895 -8.6272 -9.6716 -1.5636 -1.6043 
-1.568 -1.5675 -11.594 -11.953 -10.075 -6.7105 -5.0793 -4.5267 -10.824 
-11.896 -11.462 -8.4075 -8.4078 -11.391 -11.428 -11.875 -11.865 -10.576 
-10.602 -8.6872 -7.3621 -7.3648 -3.0015 -2.9779 -3.204 -2.9725 -6.9114 
-6.9689 -9.7349 -10.336 -11.924 -11.921 -11.365 -11.411 -9.1799 -9.1801 
-5.3637 -5.3481 -2.4172 -2.4311 -10.755 -5.1421 -7.0579 -4.9133 -8.6309 
-9.6779 -1.57 -1.5697 -1.5683 -1.6064 -11.601 -11.937 -10.123 -6.712 
-5.079 -4.5274 -10.838 -11.9 -11.464 -8.4065 -8.3698 -11.429 -11.376 
-11.866 -11.87 -10.541 -10.611 -8.6805 -7.3871 -7.3768 -3.2054 -3.0092 
-2.9838 -2.9806 -6.9334 -6.974 -9.7321 -10.307 -11.934 -11.922 -11.4 
-11.415 -9.157 -9.1631 -5.3486 -5.3788 -2.4227 -2.4353 -10.756 -5.1189 
-7.0434 -4.9185 -8.6342 -9.6683 -1.5685 -1.6078 -1.5706 -1.5752 -11.599 
-11.939 -10.071 -6.7101 -5.0712 -4.5351 -10.841 -11.863 -11.466 -8.4221 
-8.3756 -11.391 -11.38 -11.871 -11.873 -10.633 -10.605 -8.7071 -7.4041 
-7.3593 -2.9966 -2.9838 -3.2262 -2.9598 -6.9308 -6.9673 -9.6995 -10.329 
-11.933 -11.926 -11.382 -11.41 -9.1654 -9.2012 -5.3154 -5.3105 -2.4137 
-2.4341 -10.72 -5.1457 -7.0714 -4.9019 -8.6141 -9.6623 -1.5684 -1.5648 
-1.5618 -1.6126 -11.593 -11.955 -10.129 -6.6789 0 0 0 
0 0 -8.4558e-16 2.0615e-16 6.9227e-16 3.8952e-16 0 0 0 
0 0 0 0 0 0 0 0 0 
0 0 0 0 0 -1.4984 -11.816 -7.6558 -10.242 
-7.2099 -3.5168 -6.2127 -9.9082 -11.708 -4.1188 -4.5213 -11.309 -11.233 
-11.235 -8.9702 -4.1669 -4.1379 -11.172 -12.035 -12.018 -12.018 -3.9848 
-12.032 -8.9627 -9.1145 -5.4511 -5.4736 -8.3658 -11.203 -11.198 -11.183 
-11.205 -8.5874 -8.4562 -9.8283 -8.8788 -11.789 -11.791 -4.1288 -11.795 
-11.799 -10.004 -7.7619 
